<?xml version="1.0" ?>
<VTKFile type="UnstructuredGrid" version="0.1" byte_order="LittleEndian">
    <UnstructuredGrid>
        <Piece NumberOfPoints="4851" NumberOfCells="4000">
            <Points>
                <DataArray type="Float32" NumberOfComponents="3" format="ascii">-0.5 -0.5 -0.01 -0.4 -0.5 -0.01 -0.3 -0.5 -0.01 -0.2 -0.5 -0.01 -0.1 -0.5 -0.01 0 -0.5 -0.01 0.1 -0.5 -0.01 0.2 -0.5 -0.01 0.3 -0.5 -0.01 0.4 -0.5 -0.01 0.5 -0.5 -0.01 0.6 -0.5 -0.01 0.7 -0.5 -0.01 0.8 -0.5 -0.01 0.9 -0.5 -0.01 1 -0.5 -0.01 1.1 -0.5 -0.01 1.2 -0.5 -0.01 1.3 -0.5 -0.01 1.4 -0.5 -0.01 1.5 -0.5 -0.01 -0.5 -0.4 -0.01 -0.4 -0.4 -0.01 -0.3 -0.4 -0.01 -0.2 -0.4 -0.01 -0.1 -0.4 -0.01 0 -0.4 -0.01 0.1 -0.4 -0.01 0.2 -0.4 -0.01 0.3 -0.4 -0.01 0.4 -0.4 -0.01 0.5 -0.4 -0.01 0.6 -0.4 -0.01 0.7 -0.4 -0.01 0.8 -0.4 -0.01 0.9 -0.4 -0.01 1 -0.4 -0.01 1.1 -0.4 -0.01 1.2 -0.4 -0.01 1.3 -0.4 -0.01 1.4 -0.4 -0.01 1.5 -0.4 -0.01 -0.5 -0.3 -0.01 -0.4 -0.3 -0.01 -0.3 -0.3 -0.01 -0.2 -0.3 -0.01 -0.1 -0.3 -0.01 0 -0.3 -0.01 0.1 -0.3 -0.01 0.2 -0.3 -0.01 0.3 -0.3 -0.01 0.4 -0.3 -0.01 0.5 -0.3 -0.01 0.6 -0.3 -0.01 0.7 -0.3 -0.01 0.8 -0.3 -0.01 0.9 -0.3 -0.01 1 -0.3 -0.01 1.1 -0.3 -0.01 1.2 -0.3 -0.01 1.3 -0.3 -0.01 1.4 -0.3 -0.01 1.5 -0.3 -0.01 -0.5 -0.2 -0.01 -0.4 -0.2 -0.01 -0.3 -0.2 -0.01 -0.2 -0.2 -0.01 -0.1 -0.2 -0.01 0 -0.2 -0.01 0.1 -0.2 -0.01 0.2 -0.2 -0.01 0.3 -0.2 -0.01 0.4 -0.2 -0.01 0.5 -0.2 -0.01 0.6 -0.2 -0.01 0.7 -0.2 -0.01 0.8 -0.2 -0.01 0.9 -0.2 -0.01 1 -0.2 -0.01 1.1 -0.2 -0.01 1.2 -0.2 -0.01 1.3 -0.2 -0.01 1.4 -0.2 -0.01 1.5 -0.2 -0.01 -0.5 -0.1 -0.01 -0.4 -0.1 -0.01 -0.3 -0.1 -0.01 -0.2 -0.1 -0.01 -0.1 -0.1 -0.01 0 -0.1 -0.01 0.1 -0.1 -0.01 0.2 -0.1 -0.01 0.3 -0.1 -0.01 0.4 -0.1 -0.01 0.5 -0.1 -0.01 0.6 -0.1 -0.01 0.7 -0.1 -0.01 0.8 -0.1 -0.01 0.9 -0.1 -0.01 1 -0.1 -0.01 1.1 -0.1 -0.01 1.2 -0.1 -0.01 1.3 -0.1 -0.01 1.4 -0.1 -0.01 1.5 -0.1 -0.01 -0.5 0 -0.01 -0.4 0 -0.01 -0.3 0 -0.01 -0.2 0 -0.01 -0.1 0 -0.01 0 0 -0.01 0.1 0 -0.01 0.2 0 -0.01 0.3 0 -0.01 0.4 0 -0.01 0.5 0 -0.01 0.6 0 -0.01 0.7 0 -0.01 0.8 0 -0.01 0.9 0 -0.01 1 0 -0.01 1.1 0 -0.01 1.2 0 -0.01 1.3 0 -0.01 1.4 0 -0.01 1.5 0 -0.01 -0.5 0.1 -0.01 -0.4 0.1 -0.01 -0.3 0.1 -0.01 -0.2 0.1 -0.01 -0.1 0.1 -0.01 0 0.1 -0.01 0.1 0.1 -0.01 0.2 0.1 -0.01 0.3 0.1 -0.01 0.4 0.1 -0.01 0.5 0.1 -0.01 0.6 0.1 -0.01 0.7 0.1 -0.01 0.8 0.1 -0.01 0.9 0.1 -0.01 1 0.1 -0.01 1.1 0.1 -0.01 1.2 0.1 -0.01 1.3 0.1 -0.01 1.4 0.1 -0.01 1.5 0.1 -0.01 -0.5 0.2 -0.01 -0.4 0.2 -0.01 -0.3 0.2 -0.01 -0.2 0.2 -0.01 -0.1 0.2 -0.01 0 0.2 -0.01 0.1 0.2 -0.01 0.2 0.2 -0.01 0.3 0.2 -0.01 0.4 0.2 -0.01 0.5 0.2 -0.01 0.6 0.2 -0.01 0.7 0.2 -0.01 0.8 0.2 -0.01 0.9 0.2 -0.01 1 0.2 -0.01 1.1 0.2 -0.01 1.2 0.2 -0.01 1.3 0.2 -0.01 1.4 0.2 -0.01 1.5 0.2 -0.01 -0.5 0.3 -0.01 -0.4 0.3 -0.01 -0.3 0.3 -0.01 -0.2 0.3 -0.01 -0.1 0.3 -0.01 0 0.3 -0.01 0.1 0.3 -0.01 0.2 0.3 -0.01 0.3 0.3 -0.01 0.4 0.3 -0.01 0.5 0.3 -0.01 0.6 0.3 -0.01 0.7 0.3 -0.01 0.8 0.3 -0.01 0.9 0.3 -0.01 1 0.3 -0.01 1.1 0.3 -0.01 1.2 0.3 -0.01 1.3 0.3 -0.01 1.4 0.3 -0.01 1.5 0.3 -0.01 -0.5 0.4 -0.01 -0.4 0.4 -0.01 -0.3 0.4 -0.01 -0.2 0.4 -0.01 -0.1 0.4 -0.01 0 0.4 -0.01 0.1 0.4 -0.01 0.2 0.4 -0.01 0.3 0.4 -0.01 0.4 0.4 -0.01 0.5 0.4 -0.01 0.6 0.4 -0.01 0.7 0.4 -0.01 0.8 0.4 -0.01 0.9 0.4 -0.01 1 0.4 -0.01 1.1 0.4 -0.01 1.2 0.4 -0.01 1.3 0.4 -0.01 1.4 0.4 -0.01 1.5 0.4 -0.01 -0.5 0.5 -0.01 -0.4 0.5 -0.01 -0.3 0.5 -0.01 -0.2 0.5 -0.01 -0.1 0.5 -0.01 0 0.5 -0.01 0.1 0.5 -0.01 0.2 0.5 -0.01 0.3 0.5 -0.01 0.4 0.5 -0.01 0.5 0.5 -0.01 0.6 0.5 -0.01 0.7 0.5 -0.01 0.8 0.5 -0.01 0.9 0.5 -0.01 1 0.5 -0.01 1.1 0.5 -0.01 1.2 0.5 -0.01 1.3 0.5 -0.01 1.4 0.5 -0.01 1.5 0.5 -0.01 -0.5 0.6 -0.01 -0.4 0.6 -0.01 -0.3 0.6 -0.01 -0.2 0.6 -0.01 -0.1 0.6 -0.01 0 0.6 -0.01 0.1 0.6 -0.01 0.2 0.6 -0.01 0.3 0.6 -0.01 0.4 0.6 -0.01 0.5 0.6 -0.01 0.6 0.6 -0.01 0.7 0.6 -0.01 0.8 0.6 -0.01 0.9 0.6 -0.01 1 0.6 -0.01 1.1 0.6 -0.01 1.2 0.6 -0.01 1.3 0.6 -0.01 1.4 0.6 -0.01 1.5 0.6 -0.01 -0.5 0.7 -0.01 -0.4 0.7 -0.01 -0.3 0.7 -0.01 -0.2 0.7 -0.01 -0.1 0.7 -0.01 0 0.7 -0.01 0.1 0.7 -0.01 0.2 0.7 -0.01 0.3 0.7 -0.01 0.4 0.7 -0.01 0.5 0.7 -0.01 0.6 0.7 -0.01 0.7 0.7 -0.01 0.8 0.7 -0.01 0.9 0.7 -0.01 1 0.7 -0.01 1.1 0.7 -0.01 1.2 0.7 -0.01 1.3 0.7 -0.01 1.4 0.7 -0.01 1.5 0.7 -0.01 -0.5 0.8 -0.01 -0.4 0.8 -0.01 -0.3 0.8 -0.01 -0.2 0.8 -0.01 -0.1 0.8 -0.01 0 0.8 -0.01 0.1 0.8 -0.01 0.2 0.8 -0.01 0.3 0.8 -0.01 0.4 0.8 -0.01 0.5 0.8 -0.01 0.6 0.8 -0.01 0.7 0.8 -0.01 0.8 0.8 -0.01 0.9 0.8 -0.01 1 0.8 -0.01 1.1 0.8 -0.01 1.2 0.8 -0.01 1.3 0.8 -0.01 1.4 0.8 -0.01 1.5 0.8 -0.01 -0.5 0.9 -0.01 -0.4 0.9 -0.01 -0.3 0.9 -0.01 -0.2 0.9 -0.01 -0.1 0.9 -0.01 0 0.9 -0.01 0.1 0.9 -0.01 0.2 0.9 -0.01 0.3 0.9 -0.01 0.4 0.9 -0.01 0.5 0.9 -0.01 0.6 0.9 -0.01 0.7 0.9 -0.01 0.8 0.9 -0.01 0.9 0.9 -0.01 1 0.9 -0.01 1.1 0.9 -0.01 1.2 0.9 -0.01 1.3 0.9 -0.01 1.4 0.9 -0.01 1.5 0.9 -0.01 -0.5 1 -0.01 -0.4 1 -0.01 -0.3 1 -0.01 -0.2 1 -0.01 -0.1 1 -0.01 0 1 -0.01 0.1 1 -0.01 0.2 1 -0.01 0.3 1 -0.01 0.4 1 -0.01 0.5 1 -0.01 0.6 1 -0.01 0.7 1 -0.01 0.8 1 -0.01 0.9 1 -0.01 1 1 -0.01 1.1 1 -0.01 1.2 1 -0.01 1.3 1 -0.01 1.4 1 -0.01 1.5 1 -0.01 -0.5 1.1 -0.01 -0.4 1.1 -0.01 -0.3 1.1 -0.01 -0.2 1.1 -0.01 -0.1 1.1 -0.01 0 1.1 -0.01 0.1 1.1 -0.01 0.2 1.1 -0.01 0.3 1.1 -0.01 0.4 1.1 -0.01 0.5 1.1 -0.01 0.6 1.1 -0.01 0.7 1.1 -0.01 0.8 1.1 -0.01 0.9 1.1 -0.01 1 1.1 -0.01 1.1 1.1 -0.01 1.2 1.1 -0.01 1.3 1.1 -0.01 1.4 1.1 -0.01 1.5 1.1 -0.01 -0.5 1.2 -0.01 -0.4 1.2 -0.01 -0.3 1.2 -0.01 -0.2 1.2 -0.01 -0.1 1.2 -0.01 0 1.2 -0.01 0.1 1.2 -0.01 0.2 1.2 -0.01 0.3 1.2 -0.01 0.4 1.2 -0.01 0.5 1.2 -0.01 0.6 1.2 -0.01 0.7 1.2 -0.01 0.8 1.2 -0.01 0.9 1.2 -0.01 1 1.2 -0.01 1.1 1.2 -0.01 1.2 1.2 -0.01 1.3 1.2 -0.01 1.4 1.2 -0.01 1.5 1.2 -0.01 -0.5 1.3 -0.01 -0.4 1.3 -0.01 -0.3 1.3 -0.01 -0.2 1.3 -0.01 -0.1 1.3 -0.01 0 1.3 -0.01 0.1 1.3 -0.01 0.2 1.3 -0.01 0.3 1.3 -0.01 0.4 1.3 -0.01 0.5 1.3 -0.01 0.6 1.3 -0.01 0.7 1.3 -0.01 0.8 1.3 -0.01 0.9 1.3 -0.01 1 1.3 -0.01 1.1 1.3 -0.01 1.2 1.3 -0.01 1.3 1.3 -0.01 1.4 1.3 -0.01 1.5 1.3 -0.01 -0.5 1.4 -0.01 -0.4 1.4 -0.01 -0.3 1.4 -0.01 -0.2 1.4 -0.01 -0.1 1.4 -0.01 0 1.4 -0.01 0.1 1.4 -0.01 0.2 1.4 -0.01 0.3 1.4 -0.01 0.4 1.4 -0.01 0.5 1.4 -0.01 0.6 1.4 -0.01 0.7 1.4 -0.01 0.8 1.4 -0.01 0.9 1.4 -0.01 1 1.4 -0.01 1.1 1.4 -0.01 1.2 1.4 -0.01 1.3 1.4 -0.01 1.4 1.4 -0.01 1.5 1.4 -0.01 -0.5 1.5 -0.01 -0.4 1.5 -0.01 -0.3 1.5 -0.01 -0.2 1.5 -0.01 -0.1 1.5 -0.01 0 1.5 -0.01 0.1 1.5 -0.01 0.2 1.5 -0.01 0.3 1.5 -0.01 0.4 1.5 -0.01 0.5 1.5 -0.01 0.6 1.5 -0.01 0.7 1.5 -0.01 0.8 1.5 -0.01 0.9 1.5 -0.01 1 1.5 -0.01 1.1 1.5 -0.01 1.2 1.5 -0.01 1.3 1.5 -0.01 1.4 1.5 -0.01 1.5 1.5 -0.01 -0.5 -0.5 0.012 -0.4 -0.5 0.012 -0.3 -0.5 0.012 -0.2 -0.5 0.012 -0.1 -0.5 0.012 0 -0.5 0.012 0.1 -0.5 0.012 0.2 -0.5 0.012 0.3 -0.5 0.012 0.4 -0.5 0.012 0.5 -0.5 0.012 0.6 -0.5 0.012 0.7 -0.5 0.012 0.8 -0.5 0.012 0.9 -0.5 0.012 1 -0.5 0.012 1.1 -0.5 0.012 1.2 -0.5 0.012 1.3 -0.5 0.012 1.4 -0.5 0.012 1.5 -0.5 0.012 -0.5 -0.4 0.012 -0.4 -0.4 0.012 -0.3 -0.4 0.012 -0.2 -0.4 0.012 -0.1 -0.4 0.012 0 -0.4 0.012 0.1 -0.4 0.012 0.2 -0.4 0.012 0.3 -0.4 0.012 0.4 -0.4 0.012 0.5 -0.4 0.012 0.6 -0.4 0.012 0.7 -0.4 0.012 0.8 -0.4 0.012 0.9 -0.4 0.012 1 -0.4 0.012 1.1 -0.4 0.012 1.2 -0.4 0.012 1.3 -0.4 0.012 1.4 -0.4 0.012 1.5 -0.4 0.012 -0.5 -0.3 0.012 -0.4 -0.3 0.012 -0.3 -0.3 0.012 -0.2 -0.3 0.012 -0.1 -0.3 0.012 0 -0.3 0.012 0.1 -0.3 0.012 0.2 -0.3 0.012 0.3 -0.3 0.012 0.4 -0.3 0.012 0.5 -0.3 0.012 0.6 -0.3 0.012 0.7 -0.3 0.012 0.8 -0.3 0.012 0.9 -0.3 0.012 1 -0.3 0.012 1.1 -0.3 0.012 1.2 -0.3 0.012 1.3 -0.3 0.012 1.4 -0.3 0.012 1.5 -0.3 0.012 -0.5 -0.2 0.012 -0.4 -0.2 0.012 -0.3 -0.2 0.012 -0.2 -0.2 0.012 -0.1 -0.2 0.012 0 -0.2 0.012 0.1 -0.2 0.012 0.2 -0.2 0.012 0.3 -0.2 0.012 0.4 -0.2 0.012 0.5 -0.2 0.012 0.6 -0.2 0.012 0.7 -0.2 0.012 0.8 -0.2 0.012 0.9 -0.2 0.012 1 -0.2 0.012 1.1 -0.2 0.012 1.2 -0.2 0.012 1.3 -0.2 0.012 1.4 -0.2 0.012 1.5 -0.2 0.012 -0.5 -0.1 0.012 -0.4 -0.1 0.012 -0.3 -0.1 0.012 -0.2 -0.1 0.012 -0.1 -0.1 0.012 0 -0.1 0.012 0.1 -0.1 0.012 0.2 -0.1 0.012 0.3 -0.1 0.012 0.4 -0.1 0.012 0.5 -0.1 0.012 0.6 -0.1 0.012 0.7 -0.1 0.012 0.8 -0.1 0.012 0.9 -0.1 0.012 1 -0.1 0.012 1.1 -0.1 0.012 1.2 -0.1 0.012 1.3 -0.1 0.012 1.4 -0.1 0.012 1.5 -0.1 0.012 -0.5 0 0.012 -0.4 0 0.012 -0.3 0 0.012 -0.2 0 0.012 -0.1 0 0.012 0 0 0.012 0.1 0 0.012 0.2 0 0.012 0.3 0 0.012 0.4 0 0.012 0.5 0 0.012 0.6 0 0.012 0.7 0 0.012 0.8 0 0.012 0.9 0 0.012 1 0 0.012 1.1 0 0.012 1.2 0 0.012 1.3 0 0.012 1.4 0 0.012 1.5 0 0.012 -0.5 0.1 0.012 -0.4 0.1 0.012 -0.3 0.1 0.012 -0.2 0.1 0.012 -0.1 0.1 0.012 0 0.1 0.012 0.1 0.1 0.012 0.2 0.1 0.012 0.3 0.1 0.012 0.4 0.1 0.012 0.5 0.1 0.012 0.6 0.1 0.012 0.7 0.1 0.012 0.8 0.1 0.012 0.9 0.1 0.012 1 0.1 0.012 1.1 0.1 0.012 1.2 0.1 0.012 1.3 0.1 0.012 1.4 0.1 0.012 1.5 0.1 0.012 -0.5 0.2 0.012 -0.4 0.2 0.012 -0.3 0.2 0.012 -0.2 0.2 0.012 -0.1 0.2 0.012 0 0.2 0.012 0.1 0.2 0.012 0.2 0.2 0.012 0.3 0.2 0.012 0.4 0.2 0.012 0.5 0.2 0.012 0.6 0.2 0.012 0.7 0.2 0.012 0.8 0.2 0.012 0.9 0.2 0.012 1 0.2 0.012 1.1 0.2 0.012 1.2 0.2 0.012 1.3 0.2 0.012 1.4 0.2 0.012 1.5 0.2 0.012 -0.5 0.3 0.012 -0.4 0.3 0.012 -0.3 0.3 0.012 -0.2 0.3 0.012 -0.1 0.3 0.012 0 0.3 0.012 0.1 0.3 0.012 0.2 0.3 0.012 0.3 0.3 0.012 0.4 0.3 0.012 0.5 0.3 0.012 0.6 0.3 0.012 0.7 0.3 0.012 0.8 0.3 0.012 0.9 0.3 0.012 1 0.3 0.012 1.1 0.3 0.012 1.2 0.3 0.012 1.3 0.3 0.012 1.4 0.3 0.012 1.5 0.3 0.012 -0.5 0.4 0.012 -0.4 0.4 0.012 -0.3 0.4 0.012 -0.2 0.4 0.012 -0.1 0.4 0.012 0 0.4 0.012 0.1 0.4 0.012 0.2 0.4 0.012 0.3 0.4 0.012 0.4 0.4 0.012 0.5 0.4 0.012 0.6 0.4 0.012 0.7 0.4 0.012 0.8 0.4 0.012 0.9 0.4 0.012 1 0.4 0.012 1.1 0.4 0.012 1.2 0.4 0.012 1.3 0.4 0.012 1.4 0.4 0.012 1.5 0.4 0.012 -0.5 0.5 0.012 -0.4 0.5 0.012 -0.3 0.5 0.012 -0.2 0.5 0.012 -0.1 0.5 0.012 0 0.5 0.012 0.1 0.5 0.012 0.2 0.5 0.012 0.3 0.5 0.012 0.4 0.5 0.012 0.5 0.5 0.012 0.6 0.5 0.012 0.7 0.5 0.012 0.8 0.5 0.012 0.9 0.5 0.012 1 0.5 0.012 1.1 0.5 0.012 1.2 0.5 0.012 1.3 0.5 0.012 1.4 0.5 0.012 1.5 0.5 0.012 -0.5 0.6 0.012 -0.4 0.6 0.012 -0.3 0.6 0.012 -0.2 0.6 0.012 -0.1 0.6 0.012 0 0.6 0.012 0.1 0.6 0.012 0.2 0.6 0.012 0.3 0.6 0.012 0.4 0.6 0.012 0.5 0.6 0.012 0.6 0.6 0.012 0.7 0.6 0.012 0.8 0.6 0.0
[...]
            <CellData>
                <DataArray type="Int32" NumberOfComponents="1" format="ascii" Name="YarnIndex">-1 -1 -1 -1 -1 -1 -1 -1 -1 -1 -1 -1 -1 -1 -1 -1 -1 -1 -1 -1 -1 -1 -1 -1 -1 -1 -1 -1 -1 -1 -1 -1 -1 -1 -1 -1 -1 -1 -1 -1 -1 -1 -1 -1 -1 -1 -1 -1 -1 -1 -1 -1 -1 -1 -1 -1 -1 -1 -1 -1 -1 -1 -1 -1 -1 -1 -1 -1 -1 -1 -1 -1 -1 -1 -1 -1 -1 -1 -1 -1 -1 -1 -1 -1 -1 -1 -1 -1 -1 -1 -1 -1 -1 -1 -1 -1 -1 -1 -1 -1 -1 -1 -1 -1 -1 -1 -1 -1 -1 -1 -1 -1 -1 -1 -1 -1 -1 -1 -1 -1 -1 -1 -1 -1 -1 -1 -1 -1 -1 -1 -1 -1 -1 -1 -1 -1 -1 -1 -1 -1 -1 -1 -1 -1 -1 -1 -1 -1 -1 -1 -1 -1 -1 -1 -1 -1 -1 -1 -1 -1 -1 -1 -1 -1 -1 -1 -1 -1 -1 -1 -1 -1 -1 -1 -1 -1 -1 -1 -1 -1 -1 -1 -1 -1 -1 -1 -1 -1 -1 -1 -1 -1 -1 -1 -1 -1 -1 -1 -1 -1 -1 -1 -1 -1 -1 -1 -1 -1 -1 -1 -1 -1 -1 -1 -1 -1 -1 -1 -1 -1 -1 -1 -1 -1 -1 -1 -1 -1 -1 -1 -1 -1 -1 -1 -1 -1 -1 -1 -1 -1 -1 -1 -1 -1 -1 -1 -1 -1 -1 -1 -1 -1 -1 -1 -1 -1 -1 -1 -1 -1 -1 -1 -1 -1 -1 -1 -1 -1 -1 -1 -1 -1 -1 -1 -1 -1 -1 -1 -1 -1 -1 -1 -1 -1 -1 -1 -1 -1 -1 -1 -1 -1 -1 -1 -1 -1 -1 -1 -1 -1 -1 -1 -1 -1 -1 -1 -1 -1 -1 -1 -1 -1 -1 -1 -1 -1 -1 -1 -1 -1 -1 -1 -1 -1 -1 -1 -1 -1 -1 -1 -1 -1 -1 -1 -1 -1 -1 -1 -1 -1 -1 -1 -1 -1 -1 -1 -1 -1 -1 -1 -1 -1 -1 -1 -1 -1 -1 -1 -1 -1 -1 -1 -1 -1 -1 -1 -1 -1 -1 -1 -1 -1 -1 -1 -1 -1 -1 -1 -1 -1 -1 -1 -1 -1 -1 -1 -1 -1 -1 -1 -1 -1 -1 -1 -1 -1 -1 -1 -1 -1 -1 -1 -1 -1 -1 -1 -1 -1 -1 -1 -1 -1 -1 -1 -1 -1 -1 -1 -1 -1 -1 -1 -1 -1 -1 -1 -1 -1 -1 -1 -1 -1 -1 -1 -1 -1 -1 -1 -1 -1 -1 -1 -1 0 0 0 0 -1 -1 -1 -1 -1 -1 3 3 3 3 -1 -1 -1 -1 -1 0 0 0 0 0 0 -1 -1 -1 -1 3 3 3 3 3 3 -1 -1 -1 -1 0 0 0 0 0 0 -1 -1 -1 -1 3 3 3 3 3 3 -1 -1 -1 -1 0 0 0 0 0 0 -1 -1 -1 -1 3 3 3 3 3 3 -1 -1 -1 -1 0 0 0 0 0 0 -1 -1 -1 -1 3 3 3 3 3 3 -1 -1 -1 -1 -1 0 0 0 0 -1 -1 -1 -1 -1 -1 3 3 3 3 -1 -1 -1 -1 -1 -1 -1 -1 -1 -1 -1 -1 -1 -1 -1 -1 -1 -1 -1 -1 -1 -1 -1 -1 -1 -1 -1 -1 -1 -1 -1 -1 -1 -1 -1 -1 -1 -1 -1 -1 -1 -1 -1 -1 -1 -1 -1 -1 -1 -1 -1 -1 -1 -1 -1 -1 -1 -1 -1 -1 -1 -1 -1 -1 -1 -1 -1 -1 -1 -1 -1 -1 -1 -1 -1 -1 -1 -1 -1 -1 -1 -1 -1 -1 -1 -1 2 2 2 2 -1 -1 -1 -1 -1 -1 1 1 1 1 -1 -1 -1 -1 -1 2 2 2 2 2 2 -1 -1 -1 -1 1 1 1 1 1 1 -1 -1 -1 -1 2 2 2 2 2 2 -1 -1 -1 -1 1 1 1 1 1 1 -1 -1 -1 -1 2 2 2 2 2 2 -1 -1 -1 -1 1 1 1 1 1 1 -1 -1 -1 -1 2 2 2 2 2 2 -1 -1 -1 -1 1 1 1 1 1 1 -1 -1 -1 -1 -1 2 2 2 2 -1 -1 -1 -1 -1 -1 1 1 1 1 -1 -1 -1 -1 -1 -1 -1 -1 -1 -1 -1 -1 -1 -1 -1 -1 -1 -1 -1 -1 -1 -1 -1 -1 -1 -1 -1 -1 -1 -1 -1 -1 -1 -1 -1 -1 -1 -1 -1 -1 -1 -1 -1 -1 -1 -1 -1 -1 -1 -1 -1 -1 -1 -1 -1 -1 -1 3 3 -1 -1 -1 -1 -1 -1 0 0 0 0 0 0 -1 -1 -1 -1 3 3 3 3 3 3 -1 -1 -1 0 0 0 0 0 0 0 0 -1 -1 3 3 3 3 3 3 3 3 -1 -1 0 0 0 0 0 0 0 0 -1 -1 3 3 3 3 3 3 3 3 -1 0 0 0 0 0 0 0 0 0 0 -1 3 3 3 3 3 3 3 3 -1 0 0 0 0 0 0 0 0 0 0 -1 3 3 3 3 3 3 3 3 -1 -1 0 0 0 0 0 0 0 0 -1 -1 3 3 3 3 3 3 3 3 -1 -1 0 0 0 0 0 0 0 0 -1 -1 3 3 3 3 3 3 3 3 -1 -1 -1 0 0 0 0 0 0 -1 -1 -1 -1 3 3 3 3 3 3 -1 -1 -1 -1 -1 -1 -1 -1 -1 -1 -1 -1 -1 -1 -1 -1 3 3 -1 -1 -1 -1 -1 -1 -1 -1 2 2 -1 -1 -1 -1 -1 -1 -1 -1 -1 -1 -1 -1 -1 -1 -1 -1 2 2 2 2 2 2 -1 -1 -1 -1 1 1 1 1 1 1 -1 -1 -1 2 2 2 2 2 2 2 2 -1 -1 1 1 1 1 1 1 1 1 -1 -1 2 2 2 2 2 2 2 2 -1 -1 1 1 1 1 1 1 1 1 -1 -1 2 2 2 2 2 2 2 2 -1 1 1 1 1 1 1 1 1 1 1 -1 2 2 2 2 2 2 2 2 -1 1 1 1 1 1 1 1 1 1 1 -1 2 2 2 2 2 2 2 2 -1 -1 1 1 1 1 1 1 1 1 -1 -1 2 2 2 2 2 2 2 2 -1 -1 1 1 1 1 1 1 1 1 -1 -1 -1 2 2 2 2 2 2 -1 -1 -1 -1 1 1 1 1 1 1 -1 -1 -1 -1 -1 -1 2 2 -1 -1 -1 -1 -1 -1 -1 -1 -1 -1 -1 -1 -1 -1 -1 -1 -1 2 2 2 2 -1 -1 -1 -1 -1 3 3 3 3 3 3 -1 -1 -1 0 0 0 0 0 0 0 0 -1 -1 3 3 3 3 3 3 3 3 -1 0 0 0 0 0 0 0 0 0 0 -1 3 3 3 3 3 3 3 3 -1 0 0 0 0 0 0 0 0 0 0 0 3 3 3 3 3 3 3 3 0 0 0 0 0 0 0 0 0 0 0 0 3 3 3 3 3 3 3 3 0 0 0 0 0 0 0 0 0 0 0 0 3 3 3 3 3 3 3 3 0 0 0 0 0 0 0 0 0 0 0 0 3 3 3 3 3 3 3 3 0 0 0 0 0 0 0 0 0 0 0 -1 3 3 3 3 3 3 3 3 -1 -1 0 0 0 0 0 0 0 0 -1 -1 3 3 3 3 3 3 3 3 -1 -1 -1 -1 2 2 2 2 -1 -1 -1 -1 -1 3 3 3 3 3 3 -1 -1 -1 -1 2 2 2 2 2 2 -1 -1 -1 -1 -1 3 3 3 3 -1 -1 -1 -1 2 2 2 2 2 2 2 2 -1 -1 1 1 1 1 1 1 1 1 -1 -1 2 2 2 2 2 2 2 2 -1 1 1 1 1 1 1 1 1 1 1 1 2 2 2 2 2 2 2 2 1 1 1 1 1 1 1 1 1 1 1 1 2 2 2 2 2 2 2 2 1 1 1 1 1 1 1 1 1 1 1 1 2 2 2 2 2 2 2 2 1 1 1 1 1 1 1 1 1 1 1 1 2 2 2 2 2 2 2 2 1 1 1 1 1 1 1 1 1 1 1 -1 2 2 2 2 2 2 2 2 -1 1 1 1 1 1 1 1 1 1 1 -1 2 2 2 2 2 2 2 2 -1 -1 1 1 1 1 1 1 1 1 -1 -1 -1 2 2 2 2 2 2 -1 -1 -1 -1 -1 3 3 3 3 -1 -1 -1 -1 2 2 2 2 2 2 2 2 -1 -1 3 3 3 3 3 3 3 3 -1 0 0 2 2 2 2 2 2 0 0 0 3 3 3 3 3 3 3 3 0 0 0 0 0 2 2 0 0 0 0 0 0 3 3 3 3 3 3 0 0 0 0 0 0 0 0 0 0 0 0 0 0 3 3 3 3 3 3 0 0 0 0 0 0 0 0 0 0 0 0 0 0 0 3 3 3 3 0 0 0 0 0 0 0 0 0 0 0 0 0 0 0 0 3 3 3 3 0 0 0 0 0 0 0 0 0 0 0 0 0 0 0 3 3 3 3 3 3 0 0 0 0 0 0 2 2 0 0 0 0 0 0 3 3 3 3 3 3 0 0 0 0 2 2 2 2 2 2 0 0 0 3 3 3 3 3 3 3 3 0 -1 2 2 2 2 2 2 2 2 -1 -1 3 3 3 3 3 3 3 3 -1 -1 2 2 2 2 2 2 2 2 -1 -1 3 3 3 3 3 3 3 3 -1 1 2 2 2 2 2 2 2 2 1 1 1 3 3 3 3 3 3 1 1 1 1 2 2 2 2 2 2 1 1 1 1 1 1 3 3 1 1 1 1 1 1 2 2 2 2 2 2 1 1 1 1 1 1 1 1 1 1 1 1 1 1 1 2 2 2 2 1 1 1 1 1 1 1 1 1 1 1 1 1 1 1 1 2 2 2 2 1 1 1 1 1 1 1 1 1 1 1 1 1 1 1 2 2 2 2 2 2 1 1 1 1 1 1 1 1 1 1 1 1 1 1 2 2 2 2 2 2 1 1 1 1 1 1 3 3 1 1 1 1 1 2 2 2 2 2 2 2 2 1 1 1 3 3 3 3 3 3 1 1 -1 2 2 2 2 2 2 2 2 -1 -1 3 3 3 3 3 3 3 3 -1 -1 2 2 2 2 2 2 2 2 -1 -1 3 3 3 3 3 3 3 3 -1 0 2 2 2 2 2 2 2 2 0 0 0 3 3 3 3 3 3 0 0 0 0 2 2 2 2 2 2 0 0 0 0 0 0 3 3 0 0 0 0 0 0 2 2 2 2 2 2 0 0 0 0 0 0 0 0 0 0 0 0 0 0 0 2 2 2 2 0 0 0 0 0 0 0 0 0 0 0 0 0 0 0 0 2 2 2 2 0 0 0 0 0 0 0 0 0 0 0 0 0 0 0 2 2 2 2 2 2 0 0 0 0 0 0 0 0 0 0 0 0 0 0 2 2 2 2 2 2 0 0 0 0 0 0 3 3 0 0 0 0 0 2 2 2 2 2 2 2 2 0 0 0 3 3 3 3 3 3 0 0 -1 2 2 2 2 2 2 2 2 -1 -1 3 3 3 3 3 3 3 3 -1 -1 2 2 2 2 2 2 2 2 -1 -1 3 3 3 3 3 3 3 3 -1 1 1 2 2 2 2 2 2 1 1 1 3 3 3 3 3 3 3 3 1 1 1 1 1 2 2 1 1 1 1 1 1 3 3 3 3 3 3 1 1 1 1 1 1 1 1 1 1 1 1 1 1 3 3 3 3 3 3 1 1 1 1 1 1 1 1 1 1 1 1 1 1 1 3 3 3 3 1 1 1 1 1 1 1 1 1 1 1 1 1 1 1 1 3 3 3 3 1 1 1 1 1 1 1 1 1 1 1 1 1 1 1 3 3 3 3 3 3 1 1 1 1 1 1 2 2 1 1 1 1 1 1 3 3 3 3 3 3 1 1 1 1 2 2 2 2 2 2 1 1 1 3 3 3 3 3 3 3 3 1 -1 2 2 2 2 2 2 2 2 -1 -1 3 3 3 3 3 3 3 3 -1 -1 -1 2 2 2 2 2 2 -1 -1 -1 -1 -1 3 3 3 3 -1 -1 -1 -1 2 2 2 2 2 2 2 2 -1 -1 0 0 0 0 0 0 0 0 -1 -1 2 2 2 2 2 2 2 2 -1 0 0 0 0 0 0 0 0 0 0 0 2 2 2 2 2 2 2 2 0 0 0 0 0 0 0 0 0 0 0 0 2 2 2 2 2 2 2 2 0 0 0 0 0 0 0 0 0 0 0 0 2 2 2 2 2 2 2 2 0 0 0 0 0 0 0 0 0 0 0 0 2 2 2 2 2 2 2 2 0 0 0 0 0 0 0 0 0 0 0 -1 2 2 2 2 2 2 2 2 -1 0 0 0 0 0 0 0 0 0 0 -1 2 2 2 2 2 2 2 2 -1 -1 0 0 0 0 0 0 0 0 -1 -1 -1 2 2 2 2 2 2 -1 -1 -1 -1 -1 3 3 3 3 -1 -1 -1 -1 -1 -1 2 2 2 2 -1 -1 -1 -1 -1 3 3 3 3 3 3 -1 -1 -1 1 1 1 1 1 1 1 1 -1 -1 3 3 3 3 3 3 3 3 -1 1 1 1 1 1 1 1 1 1 1 -1 3 3 3 3 3 3 3 3 -1 1 1 1 1 1 1 1 1 1 1 1 3 3 3 3 3 3 3 3 1 1 1 1 1 1 1 1 1 1 1 1 3 3 3 3 3 3 3 3 1 1 1 1 1 1 1 1 1 1 1 1 3 3 3 3 3 3 3 3 1 1 1 1 1 1 1 1 1 1 1 1 3 3 3 3 3 3 3 3 1 1 1 1 1 1 1 1 1 1 1 -1 3 3 3 3 3 3 3 3 -1 -1 1 1 1 1 1 1 1 1 -1 -1 3 3 3 3 3 3 3 3 -1 -1 -1 -1 2 2 2 2 -1 -1 -1 -1 -1 3 3 3 3 3 3 -1 -1 -1 -1 -1 -1 2 2 -1 -1 -1 -1 -1 -1 -1 -1 -1 -1 -1 -1 -1 -1 -1 -1 2 2 2 2 2 2 -1 -1 -1 -1 0 0 0 0 0 0 -1 -1 -1 2 2 2 2 2 2 2 2 -1 -1 0 0 0 0 0 0 0 0 -1 -1 2 2 2 2 2 2 2 2 -1 -1 0 0 0 0 0 0 0 0 -1 -1 2 2 2 2 2 2 2 2 -1 0 0 0 0 0 0 0 0 0 0 -1 2 2 2 2 2 2 2 2 -1 0 0 0 0 0 0 0 0 0 0 -1 2 2 2 2 2 2 2 2 -1 -1 0 0 0 0 0 0 0 0 -1 -1 2 2 2 2 2 2 2 2 -1 -1 0 0 0 0 0 0 0 0 -1 -1 -1 2 2 2 2 2 2 -1 -1 -1 -1 0 0 0 0 0 0 -1 -1 -1 -1 -1 -1 2 2 -1 -1 -1 -1 -1 -1 -1 -1 -1 -1 -1 -1 -1 -1 -1 -1 -1 -1 -1 -1 -1 -1 -1 -1 -1 -1 -1 -1 3 3 -1 -1 -1 -1 -1 -1 1 1 1 1 1 1 -1 -1 -1 -1 3 3 3 3 3 3 -1 -1 -1 1 1 1 1 1 1 1 1 -1 -1 3 3 3 3 3 3 3 3 -1 -1 1 1 1 1 1 1 1 1 -1 -1 3 3 3 3 3 3 3 3 -1 1 1 1 1 1 1 1 1 1 1 -1 3 3 3 3 3 3 3 3 -1 1 1 1 1 1 1 1 1 1 1 -1 3 3 3 3 3 3 3 3 -1 -1 1 1 1 1 1 1 1 1 -1 -1 3 3 3 3 3 3 3 3 -1 -1 1 1 1 1 1 1 1 1 -1 -1 3 3 3 3 3 3 3 3 -1 -1 -1 1 1 1 1 1 1 -1 -1 -1 -1 3 3 3 3 3 3 -1 -1 -1 -1 -1 -1 -1 -1 -1 -1 -1 -1 -1 -1 -1 -1 3 3 -1 -1 -1 -1 -1 -1 -1 -1 -1 -1 -1 -1 -1 -1 -1 -1 -1 -1 -1 -1 -1 -1 -1 -1 -1 -1 -1 -1 -1 -1 -1 -1 -1 -1 -1 -1 -1 -1 -1 -1 -1 -1 -1 -1 -1 -1 -1 2 2 2 2 -1 -1 -1 -1 -1 -1 0 0 0 0 -1 -1 -1 -1 -1 2 2 2 2 2 2 -1 -1 -1 -1 0 0 0 0 0 0 -1 -1 -1 -1 2 2 2 2 2 2 -1 -1 -1 -1 0 0 0 0 0 0 -1 -1 -1 -1 2 2 2 2 2 2 -1 -1 -1 -1 0 0 0 0 0 0 -1 -1 -1 -1 2 2 2 2 2 2 -1 -1 -1 -1 0 0 0 0 0 0 -1 -1 -1 -1 -1 2 2 2 2 -1 -1 -1 -1 -1 -1 0 0 0 0 -1 -1 -1 -1 -1 -1 -1 -1 -1 -1 -1 -1 -1 -1 -1 -1 -1 -1 -1 -1 -1 -1 -1 -1 -1 -1 -1 -1 -1 -1 -1 -1 -1 -1 -1 -1 -1 -1 -1 -1 -1 -1 -1 -1 -1 -1 -1 -1 -1 -1 -1 -1 -1 -1 -1 -1 -1 -1 -1 -1 -1 -1 -1 -1 -1 -1 -1 -1 -1 -1 -1 -1 -1 -1 -1 -1 -1 -1 -1 -1 -1 -1 -1 -1 -1 -1 1 1 1 1 -1 -1 -1 -1 -1 -1 3 3 3 3 -1 -1 -1 -1 -1 1 1 1 1 1 1 -1 -1 -1 -1 3 3 3 3 3 3 -1 -1 -1 -1 1 1 1 1 1 1 -1 -1 -1 -1 3 3 3 3 3 3 -1 -1 -1 -1 1 1 1 1 1 1 -1 -1 -1 -1 3 3 3 3 3 3 -1 -1 -1 -1 1 1 1 1 1 1 -1 -1 -1 -1 3 3 3 3 3 3 -1 -1 -1 -1 -1 1 1 1 1 -1 -1 -1 -1 -1 -1 3 3 3 3 -1 -1 -1 -1 -1 -1 -1 -1 -1 -1 -1 -1 -1 -1 -1 -1 -1 -1 -1 -1 -1 -1 -1 -1 -1 -1 -1 -1 -1 -1 -1 -1 -1 -1 -1 -1 -1 -1 -1 -1 -1 -1 -1 -1 -1 -1 -1 -1 -1 -1 -1 -1 -1 -1 -1 -1 -1 -1 -1 -1 -1 -1 -1 -1 -1 -1 -1 -1 -1 -1 -1 -1 -1 -1 -1 -1 -1 -1 -1 -1 -1 -1 -1 -1 -1 -1 -1 -1 -1 -1 -1 -1 -1 -1 -1 -1 -1 -1 -1 -1 -1 -1 -1 -1 -1 -1 -1 -1 -1 -1 -1 -1 -1 -1 -1 -1 -1 -1 -1 -1 -1 -1 -1 -1 -1 -1 -1 -1 -1 -1 -1 -1 -1 -1 -1 -1 -1 -1 -1 -1 -1 -1 -1 -1 -1 -1 -1 -1 -1 -1 -1 -1 -1 -1 -1 -1 -1 -1 -1 -1 -1 -1 -1 -1 -1 -1 -1 -1 -1 -1 -1 -1 -1 -1 -1 -1 -1 -1 -1 -1 -1 -1 -1 -1 -1 -1 -1 -1 -1 -1 -1 -1 -1 -1 -1 -1 -1 -1 -1 -1 -1 -1 -1 -1 -1 -1 -1 -1 -1 -1 -1 -1 -1 -1 -1 -1 -1 -1 -1 -1 -1 -1 -1 -1 -1 -1 -1 -1 -1 -1 -1 -1 -1 -1 -1 -1 -1 -1 -1 -1 -1 -1 -1 -1 -1 -1 -1 -1 -1 -1 -1 -1 -1 -1 -1 -1 -1 -1 -1 -1 -1 -1 -1 -1 -1 -1 -1 -1 -1 -1 -1 -1 -1 -1 -1 -1 -1 -1 -1 -1 -1 -1 -1 -1 -1 -1 -1 -1 -1 -1 -1 -1 -1 -1 -1 -1 -1 -1 -1 -1 -1 -1 -1 -1 -1 -1 -1 -1 -1 -1 -1 -1 -1 -1 -1 -1 -1 -1 -1 -1 -1 -1 -1 -1 -1 -1 -1 -1 -1 -1 -1 -1 -1 -1 -1 -1 -1 -1 -1 -1 -1 -1 -1 -1 -1 -1 -1 -1 -1 -1 -1 -1 -1 -1 -1 -1 -1 -1 -1 -1 -1 -1 -1 -1 -1 -1 -1 -1 -1 -1 -1 -1 -1 -1 -1 -1 -1 -1 -1 -1 -1 -1 -1 -1 -1 -1 -1 -1 -1 -1 -1 -1 -1 -1 -1 -1 -1 -1 -1 -1 -1 -1 -1 -1 -1 -1 -1 -1 -1 -1 -1 -1 -1 -1 -1 -1 -1 -1 -1 -1 -1 -1 -1 -1 -1 -1 -1 -1 -1 -1 -1 -1 -1 -1 -1 -1 -1 -1 -1 -1 -1 -1 -1 </DataArray>
                <DataArray type="Float64" NumberOfComponents="3" format="ascii" Name="YarnTangent">0 0 0 0 0 0 0 0 0 0 0 0 0 0 0 0 0 0 0 0 0 0 0 0 0 0 0 0 0 0 0 0 0 0 0 0 0 0 0 0 0 0 0 0 0 0 0 0 0 0 0 0 0 0 0 0 0 0 0 0 0 0 0 0 0 0 0 0 0 0 0 0 0 0 0 0 0 0 0 0 0 0 0 0 0 0 0 0 0 0 0 0 0 0 0 0 0 0 0 0 0 0 0 0 0 0 0 0 0 0 0 0 0 0 0 0 0 0 0 0 0 0 0 0 0 0 0 0 0 0 0 0 0 0 0 0 0 0 0 0 0 0 0 0 0 0 0 0 0 0 0 0 0 0 0 0 0 0 0 0 0 0 0 0 0 0 0 0 0 0 0 0 0 0 0 0 0 0 0 0 0 0 0 0 0 0 0 0 0 0 0 0 0 0 0 0 0 0 0 0 0 0 0 0 0 0 0 0 0 0 0 0 0 0 0 0 0 0 0 0 0 0 0 0 0 0 0 0 0 0 0 0 0 0 0 0 0 0 0 0 0 0 0 0 0 0 0 0 0 0 0 0 0 0 0 0 0 0 0 0 0 0 0 0 0 0 0 0 0 0 0 0 0 0 0 0 0 0 0 0 0 0 0 0 0 0 0 0 0 0 0 0 0 0 0 0 0 0 0 0 0 0 0 0 0 0 0 0 0 0 0 0 0 0 0 0 0 0 0 0 0 0 0 0 0 0 0 0 0 0 0 0 0 0 0 0 0 0 0 0 0 0 0 0 0 0 0 0 0 0 0 0 0 0 0 0 0 0 0 0 0 0 0 0 0 0 0 0 0 0 0 0 0 0 0 0 0 0 0 0 0 0 0 0 0 0 0 0 0 0 0 0 0 0 0 0 0 0 0 0 0 0 0 0 0 0 0 0 0 0 0 0 0 0 0 0 0 0 0 0 0 0 0 0 0 0 0 0 0 0 0 0 0 0 0 0 0 0 0 0 0 0 0 0 0 0 0 0 0 0 0 0 0 0 0 0 0 0 0 0 0 0 0 0 0 0 0 0 0 0 0 0 0 0 0 0 0 0 0 0 0 0 0 0 0 0 0 0 0 0 0 0 0 0 0 0 0 0 0 0 0 0 0 0 0 0 0 0 0 0 0 0 0 0 0 0 0 0 0 0 0 0 0 0 0 0 0 0 0 0 0 0 0 0 0 0 0 0 0 0 0 0 0 0 0 0 0 0 0 0 0 0 0 0 0 0 0 0 0 0 0 0 0 0 0 0 0 0 0 0 0 0 0 0 0 0 0 0 0 0 0 0 0 0 0 0 0 0 0 0 0 0 0 0 0 0 0 0 0 0 0 0 0 0 0 0 0 0 0 0 0 0 0 0 0 0 0 0 0 0 0 0 0 0 0 0 0 0 0 0 0 0 0 0 0 0 0 0 0 0 0 0 0 0 0 0 0 0 0 0 0 0 0 0 0 0 0 0 0 0 0 0 0 0 0 0 0 0 0 0 0 0 0 0 0 0 0 0 0 0 0 0 0 0 0 0 0 0 0 0 0 0 0 0 0 0 0 0 0 0 0 0 0 0 0 0 0 0 0 0 0 0 0 0 0 0 0 0 0 0 0 0 0 0 0 0 0 0 0 0 0 0 0 0 0 0 0 0 0 0 0 0 0 0 0 0 0 0 0 0 0 0 0 0 0 0 0 0 0 0 0 0 0 0 0 0 0 0 0 0 0 0 0 0 0 0 0 0 0 0 0 0 0 0 0 0 0 0 0 0 0 0 0 0 0 0 0 0 0 0 0 0 0 0 0 0 0 0 0 0 0 0 0 0 0 0 0 0 0 0 0 0 0 0 0 0 0 0 0 0 0 0 0 0 0 0 0 0 0 0 0 0 0 0 0 0 0 0 0 0 0 0 0 0 0 0 0 0 0 0 0 0 0 0 0 0 0 0 0 0 0 0 0 0 0 0 0 0 0 0 0 0 0 0 0 0 0 0 0 0 0 0 0 0 0 0 0 0 0 0 0 0 0 0 0 0 0 0 0 0 0 0 0 0 0 0 0 0 0 0 0 0 0 0 0 0 0 0 0 0 0 0 0 0 0 0 0 0 0 0 0 0 0 0 0 0 0 0 0 0 0 0 0 0 0 0 0 0 0 0 0 0 0 0 0 0 0 0 0 0 0 0 0 0 0 0 0 0 0 0 0 0 0 0 0 0 0 0 0 0 0 0 0 0 0 0 0 0 0 0 0 0 0 0 0 0 0 0 0 0 0 0 0 0 0 0 0 0 0 0 0 0 0 0 0 0 0 0 0 0 0 0 0 0 0 0 0 0 0 0 0 0 0 0 0 0 0 0 0 0 0 0 0 0 0 0 0 0 0 0 0 0 0 0 0 0 0 0 0 0 0 0 0 0 0 0 0 0 0 0 0 0 0 0 0 0 0 0 0 0 0 0 0 0 0 0 0 0 0 0 0 0 0 0 0 0 0 0 0 0 0 0 0 0 0 0 0 0 0 0 0 0 0 0 0 0 0 0 0 0 0 0 0 0 0 0 0 0 0 0 0 0 0 0 0 0 0 0 0 0 0 0 0 0 0 0 0 0 0 0 0 0 0 0 0 0 0 0 0 0 0 0 0 0 0 0 0 0 0 0 0 0 0 0 0 0 0 0 0 0 0 0 0 0 0 0 0 0 0 0 0 0 0 0 0 0 0 0 0 0 0 0 0 0 0 0 0 0 0 0 0 0 0 0 0 0 0 0 0 0 0 0 0 0 0 0 0 0 0 0 0 0 0 0 0 0 0 0 0 0 0 0 0 0 0 0 0 0 0 0 0 0 0 0 0 0 0 0 0 0 0 0 0 0 0 0 0 0 0 0 0 0 0 0 0 0 0 0 0 0 0 0 0 0 0 0 0 0 0 0 0 0 0 0 0 0 0 0 0 0 0 0 0 0 0 0 0 0 0 0 0 0 0 0 0 0 0 0 0 0.997186 0 -0.0749678 0.999612 0 -0.0278584 0.999612 0 0.0278584 0.997186 0 0.0749678 0 0 0 0 0 0 0 0 0 0 0 0 0 0 0 0 0 0 0 0.993895 -0.110326 0 0.993895 -0.110326 0 0.993895 -0.110326 0 0.993895 -0.110326 0 0 0 0 0 0 0 0 0 0 0 0 0 0 0 0.993895 0 -0.110326 0.997186 0 -0.0749678 0.999612 0 -0.0278584 0.999612 0 0.0278584 0.997186 0 0.0749678 0.993895 0 0.110326 0 0 0 0 0 0 0 0 0 0 0 0 0 0.997186 -0.0749678 0 0.997186 -0.0749678 0 0.997186 -0.0749678 0 0.997186 -0.0749678 0 0.997186 -0.0749678 0 0.997186 -0.0749678 0 0 0 0 0 0 0 0 0 0 0 0 0.993895 0 -0.110326 0.997186 0 -0.0749678 0.999612 0 -0.0278584 0.999612 0 0.0278584 0.997186 0 0.0749678 0.993895 0 0.110326 0 0 0 0 0 0 0 0 0 0 0 0 -4.42328e-16 0.999612 -0.0278584 -4.42328e-16 0.999612 -0.0278584 -4.42328e-16 0.999612 -0.0278584 -4.42328e-16 0.999612 -0.0278584 -4.42328e-16 0.999612 -0.0278584 -4.42328e-16 0.999612 -0.0278584 0 0 0 0 0 0 0 0 0 0 0 0 0.993895 0 -0.110326 0.997186 0 -0.0749678 0.999612 0 -0.0278584 0.999612 0 0.0278584 0.997186 0 0.0749678 0.993895 0 0.110326 0 0 0 0 0 0 0 0 0 0 0 0 6.04745e-18 0.999612 0.0278584 2.4017e-16 0.999612 0.0278584 -8.55282e-17 0.999612 0.0278584 -4.06907e-16 0.999612 0.0278584 -2.76455e-17 0.999612 0.0278584 1.22677e-16 0.999612 0.0278584 0 0 0 0 0 0 0 0 0 0 0 0 0.993895 0 -0.110326 0.997186 0 -0.0749678 0.999612 0 -0.0278584 0.999612 0 0.0278584 0.997186 0 0.0749678 0.993895 0 0.110326 0 0 0 0 0 0 0 0 0 0 0 0 -5.52868e-17 0.997186 0.0749678 -3.04077e-16 0.997186 0.0749678 0 0.997186 0.0749678 6.91084e-17 0.997186 0.0749678 6.91084e-17 0.997186 0.0749678 0 0.997186 0.0749678 0 0 0 0 0 0 0 0 0 0 0 0 0 0 0 0.997186 0 -0.0749678 0.999612 0 -0.0278584 0.999612 0 0.0278584 0.997186 0 0.0749678 0 0 0 0 0 0 0 0 0 0 0 0 0 0 0 0 0 0 -3.31214e-16 0.993895 0.110326 -3.31214e-16 0.993895 0.110326 -3.31214e-16 0.993895 0.110326 5.52024e-17 0.993895 0.110326 0 0 0 0 0 0 0 0 0 0 0 0 0 0 0 0 0 0 0 0 0 0 0 0 0 0 0 0 0 0 0 0 0 0 0 0 0 0 0 0 0 0 0 0 0 0 0 0 0 0 0 0 0 0 0 0 0 0 0 0 0 0 0 0 0 0 0 0 0 0 0 0 0 0 0 0 0 0 0 0 0 0 0 0 0 0 0 0 0 0 0 0 0 0 0 0 0 0 0 0 0 0 0 0 0 0 0 0 0 0 0 0 0 0 0 0 0 0 0 0 0 0 0 0 0 0 0 0 0 0 0 0 0 0 0 0 0 0 0 0 0 0 0 0 0 0 0 0 0 0 0 0 0 0 0 0 0 0 0 0 0 0 0 0 0 0 0 0 0 0 0 0 0 0 0 0 0 0 0 0 0 0 0 0 0 0 0 0 0 0 0 0 0 0 0 0 0 0 0 0 0 0 0 0 0 0 0 0 0 0 0 0 0 0 0 0 0 0 0 0 0 0 0 0 0 0 0 0 0 0 0 0 0 0 0 0 0 0 0 0 0 0 0 0 0 0 0 0 0 0 0 0 0 0 0 0 0 0 0 0.993895 -0.110326 0 0.993895 -0.110326 0 0.993895 -0.110326 0 0.993895 -0.110326 0 0 0 0 0 0 0 0 0 0 0 0 0 0 0 0 0 0 0.997186 0 -0.0749678 0.999612 4.42328e-16 -0.0278584 0.999612 4.0086e-16 0.0278584 0.997186 -1.79682e-16 0.0749678 0 0 0 0 0 0 0 0 0 0 0 0 0 0 0 0 0.997186 -0.0749678 0 0.997186 -0.0749678 0 0.997186 -0.0749678 0 0.997186 -0.0749678 0 0.997186 -0.0749678 0 0.997186 -0.0749678 0 0 0 0 0 0 0 0 0 0 0 0 0.993895 2.2081e-16 -0.110326 0.997186 0 -0.0749678 0.999612 4.42328e-16 -0.0278584 0.999612 4.0086e-16 0.0278584 0.997186 -1.79682e-16 0.0749678 0.993895 5.52024e-17 0.110326 0 0 0 0 0 0 0 0 0 0 0 0 0 0.999612 -0.0278584 0 0.999612 -0.0278584 0 0.999612 -0.0278584 0 0.999612 -0.0278584 0 0.999612 -0.0278584 0 0.999612 -0.0278584 0 0 0 0 0 0 0 0 0 0 0 0 0.993895 2.2081e-16 -0.110326 0.997186 0 -0.0749678 0.999612 0 -0.0278584 0.999612 -3.27426e-16 0.0278584 0.997186 -1.79682e-16 0.0749678 0.993895 5.52024e-17 0.110326 0 0 0 0 0 0 0 0 0 0 0 0 0 0.999612 0.0278584 0 0.999612 0.0278584 0 0.999612 0.0278584 0 0.999612 0.0278584 0 0.999612 0.0278584 0 0.999612 0.0278584 0 0 0 0 0 0 0 0 0 0 0 0 0.993895 2.2081e-16 -0.110326 0.997186 0 -0.0749678 0.999612 0 -0.0278584 0.999612 3.43841e-16 0.0278584 0.997186 -1.79682e-16 0.0749678 0.993895 5.52024e-17 0.110326 0 0 0 0 0 0 0 0 0 0 0 0 0 0.997186 0.0749678 0 0.997186 0.0749678 0 0.997186 0.0749678 0 0.997186 0.0749678 0 0.997186 0.0749678 0 0.997186 0.0749678 0 0 0 0 0 0 0 0 0 0 0 0 0.993895 2.2081e-16 -0.110326 0.997186 0 -0.0749678 0.999612 -4.42328e-16 -0.0278584 0.999612 -2.57449e-16 0.0278584 0.997186 -3.04077e-16 0.0749678 0.993895 5.52024e-17 0.110326 0 0 0 0 0 0 0 0 0 0 0 0 0 0 0 0 0.993895 0.110326 0 0.993895 0.110326 0 0.993895 0.110326 0 0.993895 0.110326 0 0 0 0 0 0 0 0 0 0 0 0 0 0 0 0 0 0 0.997186 0 -0.0749678 0.999612 -4.42328e-16 -0.0278584 0.999612 -2.57449e-16 0.0278584 0.997186 -3.04077e-16 0.0749678 0 0 0 0 0 0 0 0 0 0 0 0 0 0 0 0 0 0 0 0 0 0 0 0 0 0 0 0 0 0 0 0 0 0 0 0 0 0 0 0 0 0 0 0 0 0 0 0 0 0 0 0 0 0 0 0 0 0 0 0 0 0 0 0 0 0 0 0 0 0 0 0 0 0 0 0 0 0 0 0 0 0 0 0 0 0 0 0 0 0 0 0 0 0 0 0 0 0 0 0 0 0 0 0 0 0 0 0 0 0 0 0 0 0 0 0 0 0 0 0 0 0 0 0 0 0 0 0 0 0 0 0 0 0 0 0 0 0 0 0 0 0 0 0 0 0 0 0 0 0 0 0 0 0 0 0 0 0 0 0 0 0 0 0 0 0 0 0 0 0 0 0 0.989167 -0.146796 2.20167e-16 0.989167 -0.146796 0 0 0 0 0 0 0 0 0 0 0 0 0 0 0 0 0 0 0.993815 0 -0.111048 0.997134 0 -0.0756545 0.999603 0 -0.0281864 0.999603 0 0.0281864 0.997134 0 0.0756545 0.993815 0 0.111048 0 0 0 0 0 0 0 0 0 0 0 0 0 0.990896 -0.134632 0 0.990896 -0.134632 0 0.990896 -0.134632 0 0.990896 -0.134632 0 0.990896 -0.134632 0 0.990896 -0.134632 0 0 0 0 0 0 0 0 0 0.990896 0 -0.134632 0.993815 0 -0.111048 0.997134 0 -0.0756545 0.999603 0 -0.0281864 0.999603 0 0.0281864 0.997134 0 0.0756545 0.993815 0 0.111048 0.990896 0 0.134632 0 0 0 0 0 0 -2.208e-16 0.993815 -0.111048 -2.208e-16 0.993815 -0.111048 -2.208e-16 0.993815 -0.111048 -2.208e-16 0.993815 -0.111048 -2.208e-16 0.993815 -0.111048 -2.208e-16 0.993815 -0.111048 -2.208e-16 0.993815 -0.111048 -2.208e-16 0.993815 -0.111048 0 0 0 0 0 0 0.990896 0 -0.134632 0.993815 0 -0.111048 0.997134 0 -0.0756545 0.999603 0 -0.0281864 0.999603 0 0.0281864 0.997134 0 0.0756545 0.993815 0 0.111048 0.990896 0 0.134632 0 0 0 0 0 0 -4.42286e-16 0.997134 -0.0756545 -4.42286e-16 0.997134 -0.0756545 -4.42286e-16 0.997134 -0.0756545 -4.42286e-16 0.997134 -0.0756545 -4.42286e-16 0.997134 -0.0756545 -4.42286e-16 0.997134 -0.0756545 -4.42286e-16 0.997134 -0.0756545 -4.42286e-16 0.997134 -0.0756545 0 0 0 0.989167 0 -0.146796 0.990896 0 -0.134632 0.993815 0 -0.111048 0.997134 0 -0.0756545 0.999603 0 -0.0281864 0.999603 0 0.0281864 0.997134 0 0.0756545 0.993815 0 0.111048 0.990896 0 0.134632 0.989167 0 0.146796 0 0 0 0 0.999603 -0.0281864 0 0.999603 -0.0281864 -4.42331e-16 0.999603 -0.0281864 -4.42331e-16 0.999603 -0.0281864 -4.42331e-16 0.999603 -0.0281864 -4.42331e-16 0.999603 -0.0281864 -4.42331e-16 0.999603 -0.0281864 0 0.999603 -0.0281864 0 0 0 0.989167 0 -0.146796 0.990896 0 -0.134632 0.993815 0 -0.111048 0.997134 0 -0.0756545 0.999603 0 -0.0281864 0.999603 0 0.0281864 0.997134 0 0.0756545 0.993815 0 0.111048 0.990896 0 0.134632 0.989167 0 0.146796 0 0 0 5.41683e-16 0.999603 0.0281864 3.64577e-16 0.999603 0.0281864 3.04966e-16 0.999603 0.0281864 5.39091e-16 0.999603 0.0281864 2.15118e-16 0.999603 0.0281864 3.89631e-16 0.999603 0.0281864 1.55507e-16 0.999603 0.0281864 3.89631e-16 0.999603 0.0281864 0 0 0 0 0 0 0.990896 0 -0.134632 0.993815 0 -0.111048 0.997134 0 -0.0756545 0.999603 0 -0.0281864 0.999603 0 0.0281864 0.997134 0 0.0756545 0.993815 0 0.111048 0.990896 0 0.134632 0 0 0 0 0 0 1.935e-16 0.997134 0.0756545 4.14643e-17 0.997134 0.0756545 2.9025e-16 0.997134 0.0756545 1.38214e-17 0.997134 0.0756545 1.38214e-17 0.997134 0.0756545 2.9025e-16 0.997134 0.0756545 2.9025e-16 0.997134 0.0756545 4.14643e-17 0.997134 0.0756545 0 0 0 0 0 0 0.990896 0 -0.134632 0.993815 0 -0.111048 0.997134 0 -0.0